# vtk DataFile Version 3.0
SWC2VTK
ASCII
DATASET UNSTRUCTURED_GRID
POINTS 4 float
-1.0 1.0 -0.0
0.0 0.0 0.0
1.0 2.0 3.0
2.0 3.0 -5.0

CELLS 2 8
3 1 2 0
3 2 3 1

CELL_TYPES 2
5
5

POINT_DATA 4
SCALARS scalars float 1
LOOKUP_TABLE default
0.0
1.0
2.0
3.0
